{"tossups": [{"question": "In his concerto for this instrument, Erich Wolfgang Korngold reused a two octave ascending theme from his film score for Another Dawn. A G minor \u201cCanzonetta\u201d is the middle movement of a D major concerto for this instrument inspired by Edouard Lalo\u2019s concerto for it, the Symphonie Espagnole. Pyotr Tchaikovsky\u2019s concerto for this instrument is in (*) D major. Joseph Joachim (\u201cYO-zef YAW-kim\u201d) was the dedicatee of a D major concerto for this string instrument composed by Johannes Brahms. For 10 points, name this highest-pitched string instrument played by Niccolo Paganini.", "answer": "violin [accept violin concerto]", "subcategory": "Auditory Fine Arts", "category": "Fine Arts"}, {"question": "A monotonic function can lack this property only at countably many points. If a function with this property maps a compact metric space to a metric space, then it also has the uniform type of this property. This property is often defined using the epsilon-delta criterion. A function with this property must (*) attain every value between its minimum and maximum by the intermediate value theorem. A function f has this property at a point a if the limit of \u201cf of x\u201d as x approaches a equals \u201cf of a.\u201d For 10 points, name this property of functions that can be drawn on paper without picking up the pen.", "answer": "continuity [accept word forms such as continuous]", "subcategory": "Math", "category": "Science"}, {"question": "In a novel by this author, a character declares, \u201cCalamity has come on you, my brethren, and my brethren, you deserved it.\u201d In another novel by this author, a skin disease causes a dog to develop brown sores and lose most of its fur. This author wrote a novel in which the secondary narrator Tarrou lives in a town where a sermon by (*) Father Paneloux (\u201cpah-neh-LOO\u201d) precedes a sharp increase in the number of infected people. Another novel by this author begins \u201cMaman (\u201cmuh-MAHN\u201d) died today\u201d and describes a remorseless man who killed an unnamed Arab. For 10 points name this existentialist author of The Plague who created Meursault (\u201cmare-SOH\u201d) in The Stranger.", "answer": "Albert Camus (\u201ccah-MOO\u201d)", "subcategory": "Long Fiction", "category": "Literature"}, {"question": "A legislature in this region requires certain motions to pass with a majority in two rival blocs, a process called cross-community voting. A man known as Soldier F anonymously testified regarding an event in this region for the Saville Inquiry. The \u201cblanket\u201d and \u201cdirty\u201d protests at this region\u2019s Maze Prison culminated in a hunger strike led by (*) Bobby Sands. In this region, soldiers from the Parachute Regiment opened fire on protesters in the Bogside during the 1972 Bloody Sunday massacre, which led to increased support for the Provisional IRA (\u201cI-R-A\u201d). For 10 points, name this region that saw conflict between Catholic nationalists and Protestant unionists during The Troubles.", "answer": "Northern Ireland [or Tuaisceart \u00c9ireann or Norlin Airlann; prompt on Ulster or Ireland or the United Kingdom or the UK; do NOT accept or prompt on \u201cNorth Ireland\u201d]", "subcategory": "European History", "category": "History"}, {"question": "This musician sang the lines, \u201cThey say I look like God. Could God be black?\u201d in a jazz musical he worked on with Dave Brubeck called The Real Ambassadors. This musician collaborated on songs like \u201cMy Heart\u201d with his second wife, Lil Hardin. With Earl Hines, this musician made recordings of \u201cWeather Bird\u201d and (*) \u201cWest End Blues,\u201d both of which were written by his mentor, Joe \u201cKing\u201d Oliver. With his \u201cHot Five,\u201d this musician recorded \u201cHeebie Jeebies,\u201d which features his scat singing. For 10 points, name this jazz trumpeter nicknamed \u201cSatchmo\u201d who raspily sang, \u201cI see trees of green, red roses too,\u201d in \u201cWhat a Wonderful World.\u201d", "answer": "Louis Armstrong", "subcategory": "Auditory Fine Arts", "category": "Fine Arts"}, {"question": "In plants, these structures are the site of a mechanism in which isocitrate lyase (\u201cLYE-ase\u201d) catalyzes the production of succinate (\u201cSUCK-sin-ate\u201d). That mechanism is the glyoxylate (\u201cgly-OX-il-ate\u201d) cycle. Mutations in the PEX (\u201cP-E-X\u201d) gene family render these structures non-functional, causing the degradation of myelin (\u201cMYE-uh-lin\u201d), in neonatal adrenoleukodystrophy and other (*) Zellweger spectrum disorders. Like mitochondria, these structures break down fatty acids into acetyl-CoA (\u201cuh-SEE-til koh-A\u201d) through beta oxidation. These structures neutralize reactive oxygen species using enzymes such as urate oxidase and catalase. For 10 points, identify these organelles named for their ability to produce and break down hydrogen peroxide.", "answer": "peroxisomes [prompt on microbodies; prompt on glyoxysomes by asking \u201cwhich are a specialized type of what structures?\u201d]", "subcategory": "Biology", "category": "Science"}, {"question": "British archaeologist Irving Finkel reconstructed the rules to a game played by this civilization that was played with a tetrahedral die. Chariots and soldiers made of shell and red limestone precess over a lapis lazuli background in an artifact from a city in this civilization called its \u201cStandard.\u201d The first ruler of this civilization is identified as Etana of Kish in this civilization\u2019s (*) King List, which was discovered at Lagash. That city\u2019s Royal Cemetery was excavated by Leonard Woolley. This civilization was conquered by a former royal cup-bearer, Sargon of Akkad. For 10 points, name this ancient Mesopotamian civilization which built ziggurats at cities like Ur and Uruk.", "answer": "Sumer [or Sumerians; prompt on Ur or Uruk; do NOT accept or prompt on \u201cAssyria\u201d]", "subcategory": "World History", "category": "History"}, {"question": "This poem deviates from its source text, a travelogue by Samuel Purchas, by describing \u201ctwice five miles of fertile ground\u201d instead of the sixteen miles described by Purchas. This poem describes \u201cA savage place! As holy and enchanted / as e\u2019er beneath a waning moon was haunted.\u201d This poem ends by mentioning he who \u201con honey-dew hath fed, and (*) drunk the milk of Paradise\u201d after describing \u201can Abyssinian maid\u2026 singing of Mount Abora.\u201d An interruption by a \u201cperson from Porlock\u201d prevented its author from finishing this poem. For 10 points, a \u201cstately pleasure-dome\u201d is described in what Samuel Taylor Coleridge poem titled for a Mongol ruler?", "answer": "\u201cKubla Khan\u201d", "subcategory": "Poetry", "category": "Literature"}, {"question": "In this state, a preacher called The Public Universal Friend who claimed to have no gender established the township of Jerusalem. William Miller, a resident of this state, used a 2,300-day prophecy to conclude that the Second Coming would occur in 1843. The western part of this state became known as the (*) Burned-over District for its religious fervor during the Second Great Awakening. In this state, Joseph Smith discovered the golden plates on the Hill Cumorah (\u201ckuh-MORE-uh\u201d). Many Dutch Reformed churches were established in this state when it contained the city of New Amsterdam. For 10 points, name this state that contains St. Patrick\u2019s Cathedral on its island of Manhattan.", "answer": "New York", "subcategory": "Other Academic", "category": "Other Academic"}, {"question": "These molecules are formed from the reaction of a lithium diorganylcuprate and an organyl halide in the Corey-House synthesis. Derivatives of a cyclic molecule of this type are produced by the Simmons-Smith reaction. The flagpole interaction destabilizes a conformation taken by a cyclic one of these molecules to relieve torsional strain. A single dehydrogenation of these molecules yields (*) alkyl substituents. The tetrahedral geometry of the simplest of these molecules is explained by the sp 3 (\u201cs-p-3\u201d) hybridization between its hydrogen and carbon atoms. For 10 points, methane and butane exemplify what fully-saturated hydrocarbons that contain only single carbon-carbon bonds?", "answer": "alkanes [or cycloalkanes; prompt on methane or cyclopropane or cyclohexane with \u201cwhat general class of molecules does that compound belong to?\u201d; prompt on hydrocarbons; do NOT accept or prompt on \u201calkenes\u201d or \u201calkynes\u201d]", "subcategory": "Chemistry", "category": "Science"}, {"question": "This artist depicted his secretary and sister-in-law Ethel Wibly wearing a black, slightly-transparent dress in the painting Mother of Pearl and Silver. In another painting by this artist, a woman standing on a wolf pelt holds a lily and wears a white dress. This artist signed many of his paintings with a monogram of a butterfly with a stinger. This artist of (*) The White Girl sued the art critic John Ruskin for using the words \u201cflinging a pot of paint in the public\u2019s face\u201d to describe his Nocturne in Black and Gold. For 10 points, name this artist who depicted the side profile of his mother in his Arrangement in Grey and Black No. 1.", "answer": "James Abbott McNeill Whistler", "subcategory": "Visual Fine Arts", "category": "Fine Arts"}, {"question": "A god from what is now this country names a Temple that Michael Aquino founded after leaving the Church of Satan. A deity worshiped in this country was praised in his namesake Great Hymn, which is often compared to Psalm 104. The ancient people of what is now this country believed in a life-essence called ka. A ruler of what is now this country established a monotheistic religion that worshipped the (*) sun disk. Rulers of what is now this country were aided in their passage through the Duat by spells written in the Book of the Dead. For 10 points, name this modern-day country where worship of the Aten was established by the pharaoh Akhenaten.", "answer": "Egypt [or Kemet]", "subcategory": "Religion", "category": "Religion"}, {"question": "In a novel by this author, a man is forced to draw trousers on images of flamingos. This author created a character who says, \u201cFor you, a thousand times over,\u201d to a character who later frames him for stealing a watch. A novel by this author ends with Tariq and his family visiting a hut that Jalil built. In that novel, Leila and Mariam try to escape the abusive Rasheed. (*) Rahim Khan says \u201cthere is a way to be good again\u201d to a man who went to America and married Soraya in another novel by this author. This author wrote a novel in which Assef rapes the cleft-lipped Hazara boy, Hassan. For 10 points, A Thousand Splendid Suns is by what Afghan author of The Kite Runner?", "answer": "Khaled Hosseini", "subcategory": "Long Fiction", "category": "Literature"}, {"question": "This leader\u2019s government ordered the execution of American filmmaker Charles Horman. This leader was controversially made a senator-for-life after he was succeeded by Patricio Aylwin. This leader\u2019s secret police conducted a car bombing in Washington D.C. to assassinate Orlando Letelier. This leader took power after the bombing of (*) La Moneda Palace during a CIA-sponsored coup. This leader refused to privatize his nation\u2019s copper industry despite being advised to do so by a group of laissez-faire economic advisors nicknamed the \u201cChicago Boys.\u201d This leader overthrew Salvador Allende in 1971. For 10 points, name this right-wing military dictator of Chile.", "answer": "Augusto Pinochet [or Augusto Jos\u00e9 Ram\u00f3n Pinochet Ugarte]", "subcategory": "World History", "category": "History"}, {"question": "One politician in this organization was nicknamed \u201cMr. No No No\u201d and said that one meeting of this organization was not for a birthday party. One wing of this organization invalidated the Privacy Shield agreement that another part signed since it did not comply with its (*) GDPR. Ursula von der Leyen succeeded Jean-Claude Juncker (\u201cYOON-ker\u201d) as president of this organization\u2019s Commission in 2019. This organization\u2019s \u201cfrugal four\u201d countries agreed to a coronavirus stimulus deal in exchange for larger rebates. This organization\u2019s member countries tightened borders during the pandemic, despite many being in its Schengen Area. For 10 points, name this organization that the UK left in Brexit.", "answer": "The European Union [or the EU]", "subcategory": "Current Events", "category": "Current Events"}, {"question": "A study by Batygin and Brown concluded that one of these objects likely causes the orbital clustering of distant KBOs (\u201cK-B-O\u2019s\u201d). The disk-instability and core-accretion models explain the existence of a class of these objects that only forms beyond the frost line. According to the Nice (\u201cneece\u201d) model, the outward migration of that class of these objects caused the Late Heavy Bombardment. 51 Pegasi b (\u201cfifty-one PEH-guh-sye B\u201d) exemplifies a large, (*) \u201chot\u201d class of these objects with orbital periods of less than 10 days. The IAU (\u201cI-A-U\u201d) declared in 2006 that these objects must \u201cclear the neighborhood.\u201d For 10 points, name these celestial bodies which include Earth and Mars, but not Pluto.", "answer": "planets [accept Planet Nine or Planet X or giant planets or exoplanets or extrasolar planets or terrestrial planets or rocky planets; accept gas giants or ice giants or hot Jupiters or hot Neptunes; do NOT accept or prompt on \u201cdwarf planets\u201d or \u201cminor planets\u201d] (KBO stands for Kuiper belt object.)", "subcategory": "Other Science", "category": "Science"}, {"question": "A text by this author begs the readers\u2019 forgiveness if it \u201coverstates the truth,\u201d but begs God\u2019s forgiveness if it \u201cunderstates the truth.\u201d In a speech, this author contrasted a \u201cdark and desolate valley\u201d with a \u201csunlit path.\u201d This author repeated, \u201cHow long? Not long\u201d in a speech that asserts, \u201cthe arc of the moral universe is long, but it bends towards (*) justice.\u201d This author used the metaphor of cashing a \u201cpromissory note\u201d at the \u201cbank of justice\u201d in a speech that imagines a nation where his \u201cfour little children\u201d will be judged \u201cby the content of their character.\u201d For 10 points, name this author of \u201cLetter from a Birmingham Jail\u201d and the \u201cI Have a Dream\u201d speech.", "answer": "Martin Luther King, Jr. [or M.L.K.]", "subcategory": "Other Literature", "category": "Literature"}, {"question": "One document by this thinker mentions \u201cdecision, activity, secrecy, and dispatch\u201d as reasons for a unitary executive. A document by this thinker that called for increased tariffs and internal improvements was central to the American School of Economics. A report by this thinker called for the redemption of government securities and the assumption of (*) state debts. In addition to writing a report on Manufactures and two reports on Public Credit, this thinker wrote 51 of the The Federalist Papers in collaboration with John Jay and James Madison. For 10 points, name this first Secretary of the Treasury who was killed in a duel with Aaron Burr.", "answer": "Alexander Hamilton (The document in the first sentence is Federalist No. 70.)", "subcategory": "American History", "category": "History"}, {"question": "This author recorded the creation story of the Serrano based on tales told by Rosa Morongo. This author worked with a student on a pamphlet espousing that there was no \u201cJewish race\u201d in an effort to debunk racial pseudoscience. In one work, this author compared the \u201cparanoid\u201d culture of the Dobu with the cultures of tribes such as the (*) Zuni and Kwakiutl. Margaret Mead wrote that this thinker believed culture was \u201cpersonality writ large\u201d in the foreword to this thinker\u2019s Patterns of Culture. For 10 points, name this American anthropologist who contrasted Japan\u2019s shame culture with America\u2019s guilt culture in The Chrysanthemum and the Sword.", "answer": "Ruth Fulton Benedict", "subcategory": "Other Science", "category": "Science"}, {"question": "This quantity names a positive constant \u2206 (\u201cdelta\u201d) that is conjectured to exist in a large class of non-abelian gauge (\u201cgayj\u201d) theories. Virtual particles exist off of the \u201cshell\u201d named for this quantity. A \u201cgap\u201d named for this quantity is the subject of an unsolved problem in Yang-Mills theory. The existence of neutrino flavor oscillations implies that neutrinos have a (*) non-zero value for this quantity. Particles with a value of zero for this quantity travel at the speed of light. Special relativity implies the equivalence of energy and this quantity. For 10 points, energy equals what quantity times the speed of light squared?", "answer": "mass [or mass-energy; accept mass gap or mass shell or rest mass invariant mass or proper mass or intrinsic mass or inertial mass or gravitational mass; prompt on m; prompt on energy or E before \u201cenergy\u201d]", "subcategory": "Physics", "category": "Science"}], "bonuses": [{"leadin": "Along with Liberal leaders Juan \u00c1lvarez and Ignacio Comonfort, this politician supported the Plan of Ayutla (\u201ceye-YOOT-lah\u201d). For 10 points each:", "answers": ["Benito Ju\u00e1rez [or Benito Pablo Ju\u00e1rez Garcia]", "Catholic Church [accept word forms of Catholic such as Catholicism; prompt on answers mentioning Church or Christianity by asking \u201cWhich denomination of Christianity?\u201d]", "Emiliano Zapata"], "parts": ["Name this president of Mexico from 1858 to 1872. The tenure of this first Mexican president of indigenous origin saw both the Reform War and the occupation of Mexico by the French under Emperor Maximilian I (\u201cthe first\u201d).", "Ju\u00e1rez targeted this institution\u2019s traditional fuero (\u201cF\u2019WAIR-oh\u201d) rights and expropriated their large landholdings in Mexico. This institution\u2019s monasteries and convents were also secularized during Ju\u00e1rez\u2019s tenure.", "Ju\u00e1rez enforced laws that dissolved indigenous corporate holdings, leading in part to the indigenous landlessness that this leader\u2019s Plan of Ayala decried. This leader was assassinated in 1919 by the forces of Venustiano Carranza."], "subcategory": "World History", "category": "History"}, {"leadin": "Every hour, a five-note trumpet call is played from this city\u2019s Saint Mary\u2019s Basilica. For 10 points each:", "answers": ["Krak\u00f3w [or Cracow]", "Republic of Poland [or Rzeczpospolita Polska]", "Tatra Mountains [or Tatry]"], "parts": ["Name this city at the foot of the Carpathians that contains the Jagiellonian University on the Vistula River. The Royal Road goes through this city\u2019s Florian gate.", "Krak\u00f3w is in this country on the Baltic Sea. Other cities in this country include \u0141\u00f3d\u017a, Gda\u0144sk, and its capital, Warsaw.", "This highest sub-range of the Carpathian Mountains is located south of Krak\u00f3w and north of the Slovak border. Poland\u2019s highest peak, Rysy, is in these mountains."], "subcategory": "Geography", "category": "Geography"}, {"leadin": "This character deduces that another character has a wife, two girls, two parakeets, and is begrudgingly a cat person because his wife and kids like them. For 10 points each:", "answers": ["Jerry", "The Zoo Story", "Virginia Woolf [accept Who\u2019s Afraid of Virginia Woolf?]"], "parts": ["Name this character who tells a man that he poisoned his landlady\u2019s dog with rat poison hidden in burger meat. This character mockingly mumbles, \u201cOh my God,\u201d after running into a knife held by Peter.", "Jerry is stabbed by Peter at the end of this one-act play by Edward Albee. The action of this play occurs around a single bench in Central Park.", "Martha and George invite the younger couple Nick and Honey to their house for an evening of drinking and verbal abuse in an Albee play titled Who\u2019s Afraid of [this author]?"], "subcategory": "Drama", "category": "Literature"}, {"leadin": "These protists are thought to produce about twenty percent of the Earth\u2019s atmospheric oxygen. For 10 points each:", "answers": ["diatoms (\u201cDYE-uh-toms\u201d) [accept Bacillariophyceae or Diatomophyceae or Bacillariophyta; accept diatomaceous earth]", "sponges [accept glass sponges; prompt on Hexactinellida or Symplasma]", "brown algae [or Phaeophyceae or Phaeophyta]"], "parts": ["Name this class of single-celled algae whose members may have centric or pennate shapes. These algae use silica to build cell walls called frustules (\u201cFRUHS-chewls\u201d), which can accumulate to form these algae\u2019s namesake type of \u201cearth.\u201d", "Like diatoms, the \u201cglass\u201d variety of these animals incorporates silica into its body structure in the form of spicules (\u201cSPICK-yool\u2019s\u201d). These simple, filter-feeding animals comprise the phylum Porifera.", "Diatoms share the clade Heterokonta with this other class of algae characterized by large amounts of the pigment fucoxanthin (\u201cf\u2019yoo-koh-ZAN-thin\u201d). Many of these algae, such as Macrocystis (\u201cmac-roh-SIST-iss\u201d), possess gas-filled floats called pneumatocysts (\u201cnew-MAT-oh-sists\u201d)."], "subcategory": "Biology", "category": "Science"}, {"leadin": "A poem titled for this location has an ancient Greek epigraph meaning \u201cA human being: cause enough for misery.\u201d For 10 points each:", "answers": ["Eton College [accept \u201cOde on a Distant Prospect of Eton College\u201d]", "Thomas Gray (That other poem is \u201cElegy Written in a Country Churchyard.\u201d)", "River Thames [accept Thames River]"], "parts": ["Name this location where the speaker\u2019s \u201ccareless childhood did stray\u201d beneath \u201cdistant spires\u201d and \u201cantique tow\u2019rs.\u201d That poem titled for this location laments, \u201cWhere ignorance is bliss, \u2018tis folly to be wise.\u201d", "\u201cOde on a Distant Prospect of Eton College\u201d was written by this author. In another poem, this author described the title location as \u201cfar from the madding crowd\u2019s ignoble strife.\u201d", "\u201cOde on a Distant Prospect of Eton College\u201d describes the \u201csilver-winding way\u201d of this English river. William Blake called this river \u201ccharter\u2019d\u201d in his poem \u201cLondon.\u201d"], "subcategory": "Poetry", "category": "Literature"}, {"leadin": "For 10 points each, answer the following about composer Bohuslav Martin\u016f (\u201cMAHR-tee-noo\u201d):", "answers": ["Igor Stravinsky", "string orchestra [or strings; accept Serenade for Strings; accept Double Concerto for Two String Orchestras, Piano, and Timpani; prompt on orchestra]", "Czech Republic [or \u010cesk\u00e1 republika or Czechia; accept Czech Rhapsody; accept Czechoslovakia]"], "parts": ["Martin\u016f\u2019s Paris period is strongly influenced by the Neoclassical style of this Russian composer, whose pieces in that style include the opera The Rake\u2019s Progress and the Symphony of Psalms.", "During World War II, Martin\u016f composed his dissonant Double Concerto for two of these ensembles. His countryman Anton\u00edn Dvo\u0159\u00e1k\u2019s (\u201cd\u2019vor-JAHK\u2019s\u201d) E Major Serenade is also scored for one of these ensembles.", "Martin\u016f and Dvorak are both composers from this modern-day country. In 1919, Martin\u016f wrote a rhapsody commemorating this country's union with its eastern neighbor Slovakia to form an independent state."], "subcategory": "Auditory Fine Arts", "category": "Fine Arts"}, {"leadin": "The xz (\u201cX-Z\u201d) utility uses the Lempel-Ziv-Markov chain algorithm to perform this process. For 10 points each:", "answers": ["lossless compression [or data compression]", "Huffman coding [or Huffman compression or Huffman encoding; accept static Huffman encoding or dynamic Huffman encoding]", "null"], "parts": ["Name this process, which reduces the number of bits needed to represent data. The data in dot-zip files has undergone this process.", "The gzip (\u201cG-zip\u201d) utility uses the DEFLATE (\u201cdeflate\u201d) algorithm, a combination of LZSS (\u201cL-Z-S-S\u201d) and this algorithm. This algorithm replaces fixed-length character codes with shorter variable-length prefix-free codes based on relative character frequency.", "In the trie (\u201ctry\u201d) encoding generated by Huffman coding, every node except for leaves contain this value. This value is the intentional absence of any value."], "subcategory": "Other Science", "category": "Science"}, {"leadin": "The semi-empirical mass formula can be used to compute this structure\u2019s mass defect. For 10 points each:", "answers": ["atomic nucleus", "nuclear shell model", "atomic number [prompt on Z]"], "parts": ["Name this structure, which George Gamow (\u201cGAM-off\u201d) described by the liquid drop model. This structure is anomalously stable at so-called \u201cmagic numbers.\u201d", "This model of the nucleus is most often used to explain magic numbers, since they are not predicted by the liquid drop model. This model was developed by Eugene Wigner (\u201cVIG-ner\u201d), Maria Goeppert-Mayer, and J. Hans D. Jensen.", "Both the liquid drop model and the nuclear shell model attempt to predict nuclear structure based on the number of neutrons and on this quantity. This quantity equals the number of protons in the nucleus."], "subcategory": "Chemistry", "category": "Science"}, {"leadin": "This artist included images of John F. Kennedy and an astronaut in his silkscreen Retroactive I (\u201cone\u201d). For 10 points each:", "answers": ["Robert Rauschenberg [accept Milton Ernest Rauschenberg]", "clocks [accept watches or timepieces]", "Jasper Johns"], "parts": ["Name this artist who integrated elements of painting and sculpture in a series of \u201ccombines.\u201d This artist\u2019s piece Monogram features a stuffed Angora goat wearing a tire and standing on top of a canvas.", "Rauschenberg\u2019s combine entitled Third Time Painting places one of these objects on top of the canvas. These objects melt in Dali\u2019s The Persistence of Memory.", "This artist was Rauschenberg\u2019s longtime lover and artistic partner. This artist used encaustic wax painting in his work Three Flags, which stacks three canvases depicting American flags on top of each other."], "subcategory": "Visual Fine Arts", "category": "Fine Arts"}, {"leadin": "Lakshmana drew a chalk line to protect this woman while he was looking for her husband, but she stepped over the line to feed a mendicant. For 10 points each:", "answers": ["Sita", "Rama [or Ram]", "deer [or fawn or stag or buck]"], "parts": ["Name this woman. That mendicant was actually a rakshasa in disguise, who kidnapped this woman and imprisoned her in the Ashok vatika garden.", "Sita was the wife of this prince of Ayodhya (\u201cuh-YOHD-yuh\u201d), who was exiled by his father Dasharatha. This hero\u2019s namesake epic describes his journey to the kingdom of Lanka to rescue Sita from the demon-king Ravana.", "Sita was kidnapped after she urged Rama to pursue a golden one of these animals that was really Ravana\u2019s uncle, Maricha, in disguise."], "subcategory": "Mythology", "category": "Mythology"}, {"leadin": "Archbishop Richard Whately decried this practice as a part of his hatred of almsgiving. For 10 points each:", "answers": ["souperism [or word forms such as souper; accept jumpers or cat breacs]", "Irish potato famine [or Great Hunger or Great Famine or Gorta M\u00f3r; accept any answers mentioning famine and Ireland; prompt on famine]", "Robert Peel [or Sir Robert Peel, 2nd Baronet]"], "parts": ["Name this practice in which Protestants set up schools that fed starving children on the condition that they receive Protestant instruction. Edward Nangle was a notable proponent of this practice.", "Souperism was common during this event that was caused by a devastating blight and exacerbated by the laissez-faire policies of Charles Trevelyan. This event led to the partial depopulation of an island led from Dublin.", "This prime minister during the Irish potato famine resigned shortly after repealing the Corn Laws. The Metropolitan Police force gained the nickname \u201cBobbies\u201d in reference to this leader, who founded the force in 1829."], "subcategory": "European History", "category": "History"}, {"leadin": "Soviet montage theory used these transitions between shots in an attempt to convey different emotions. For 10 points each.", "answers": ["cuts", "1917", "Roger Deakins"], "parts": ["Name these sudden transitions between shots whose \u201cjump\u201d variety involves shifting the camera slightly to jarringly convey the passage of time. They are contrasted with dissolves and wipes.", "This 2019 film uses a single shot only broken by a blackout to tell the story of Corporal Schofeld and Corporal Blake delivering a secret message to Colonel Mackenzie.", "This person won the 2019 Oscar for Best Cinematography for his work on the film 1917. He also won in 2017 for Blade Runner 2049 and is known for his collaborations with the Coen brothers."], "subcategory": "Other Fine Arts", "category": "Fine Arts"}, {"leadin": "In Prior Analytics, Aristotle presented the first formal study of this field. For 10 points each:", "answers": ["logic", "Freidrich Ludwig Gottlob Frege", "Georg Wilhelm Friedrich Hegel"], "parts": ["Name this field of philosophy concerned with the study of arguments. Methods used in this field include inductive and deductive reasoning.", "This German philosopher\u2019s Begriffsschrift system of logic was the first to use quantified variables and employed the first modern logical proofs. His books include On Sense and Reference and The Foundations of Arithmetic.", "This other philosopher created a logic system based on interaction of thought and being in his book The Science of Logic. That book combines Aristotle\u2019s syllogism with this thinker\u2019s concept of the dialectic."], "subcategory": "Philosophy", "category": "Philosophy"}, {"leadin": "Two men break into this character\u2019s apartment while he is waiting for Mrs. Grubach to bring him breakfast. For 10 points each:", "answers": ["Josef K. (\u201cYO-zef kah\u201d)[or Josef K.]", "Franz Kafka", "\u201cIn the Penal Colony\u201d [or \u201cIn der Stra kolonie\u201d]"], "parts": ["Name this character who is arrested on his 30th birthday for an unknown crime. After his arrest, three of his coworkers break into the apartment of his neighbour Fr\u00e4ulein B\u00fcrstner.", "Josef K. is the main character of The Trial, an unfinished novel by this author. This author wrote about Gregor Samsa\u2019s transformation into an \u201cungeheuren Ungeziefer\u201d (\u201cUHN-guh-HOY-ren UHN-guh-ZEE-fer\u201d), or \u201chorrible vermin,\u201d in The Metamorphosis.", "In this other Franz Kafka short story, the Officer shows the Traveller an execution device made of \u201cthe Bed,\u201d \u201cthe Designer,\u201d and \u201cthe Harrow.\u201d At the end of this short story, the Officer tries to get the machine to inscribe the words \u201cBe Just\u201d on his back but is instead stabbed to death."], "subcategory": "Short Fiction", "category": "Literature"}, {"leadin": "Men of the cloth aren\u2019t immune from the scruples. For 10 points each, answer the following about depictions of clerical guilt in fiction:", "answers": ["Winesburg, Ohio", "Nathaniel Hawthorne", "Leo Tolstoy [or Lev Nikolayevich Tolstoy]"], "parts": ["Reverend Curtis Hartman spies on Kate Swift while she prays in the nude in \u201cThe Strength of God,\u201d a story from this collection by Sherwood Anderson.", "This author created Reverend Hooper, who claims to see a symbol of secret sin on every face around him as he is dying, in \u201cThe Minister\u2019s Black Veil.\u201d He also wrote The Scarlet Letter.", "This other author wrote about a priest who cuts off one of his fingers amid struggles with lust and doubt in the story \u201cFather Sergius.\u201d"], "subcategory": "Short Fiction", "category": "Literature"}, {"leadin": "A question about an imaginary Metallic Metals Act was used to show how people fill out these things even when they don\u2019t know what they are talking about. For 10 points each:", "answers": ["opinion poll [accept opinion survey or questionnaire]", "non-response bias [accept participation bias]", "straw poll [do NOT accept or prompt on \u201ccaucus\u201d]"], "parts": ["Name these things conducted by companies like Gallup and Rasmussen. These things show the opinions of a group of people on various issues.", "Some polls suffer from this bias, which is similar to self-selection bias, if they fail to reach a representative portion of society for the issue they are polling. The continuum of resistance model attempts to correct for this bias.", "This type of poll is used to gauge interest in pursuing a plan of action or policy measure. The State of Iowa holds this type of ad hoc poll every presidential election cycle as an early way for candidates to build campaign momentum."], "subcategory": "Other Science", "category": "Science"}, {"leadin": "Bednorz and M\u00fcller discovered a material for which this temperature was 35 kelvin, much higher than the previously known values for it. For 10 points each:", "answers": ["critical temperature", "superconductors [do NOT accept or prompt on \u201cconductors\u201d]", "liquid helium [or liquid He; prompt on helium or He]"], "parts": ["Name this temperature, which is relatively high for certain cuprates. Below this temperature, electrons condense into composite bosons through the exchange of phonons.", "The critical temperature is the temperature below which these materials conduct current without any resistance. BCS (\u201cB-C-S\u201d) theory and Ginzburg-Landau theory are two theories of these materials.", "Before the discovery of YBCO (\u201cY-B-C-O\u201d), superconductors had to be cooled to their critical temperature using this substance. This substance is a superfluid below the lambda point, and it is used as a coolant in MRI scanners."], "subcategory": "Physics", "category": "Science"}, {"leadin": "During this battle, General Francois Kellerman took off his hat and yelled \u201cLong live the nation\u201d to arouse his troops\u2019 patriotic fervor. For 10 points each:", "answers": ["Battle of Valmy", "Louis XVI (\u201cthe sixteenth\u201d) [prompt on Louis or Louis Capet]", "Marquis de Lafayette [or Marie-Joseph Paul Yves Roch Gilbert du Motier]"], "parts": ["Name this 1792 battle that halted the Duke of Brunswick\u2019s march on Paris. Johann Wolfgang von Goethe (\u201cGUR-tuh\u201d) wrote that this battle was the beginning of a \u201cnew epoch in the history of the world.\u201d", "Following the Battle of Valmy, the National Assembly abolished the French monarchy, which had been headed by this ruler. This king was executed alongside his wife Marie Antoinette in 1793.", "Shortly before the Battle of Valmy, this general was declared a traitor by the National Assembly. This man earlier authored the Declaration of the Rights of Man with Abb\u00e9 Siey\u00e8s (\u201cah-BAY SEE-yez\u201d) and Thomas Jefferson."], "subcategory": "European History", "category": "History"}, {"leadin": "One of these cases, Gonzales v. Williams, originated the designation of \u201cnoncitizen national\u201d that still applies to American Samoans. For 10 points each:", "answers": ["Insular Cases [prompt on Downes v. Bidwell]", "Puerto Rico [or Commonwealth of Puerto Rico]", "The Philippines [or Pilipinas or Filipinas or Republic of the Philippines or Republika ng Pilipinas]"], "parts": ["Name this 1901 set of Supreme Court cases. These cases prevented newly-acquired U.S. territories from being incorporated into the Union based on the difficulty of enacting \u201cAnglo-Saxon principles.\u201d", "In a case pitting Jes\u00fas M. Balzac against this U.S. territory, the Supreme Court ruled that only \u201cfundamental\u201d rights applied to its residents. This territory\u2019s Legislative Assembly resides in its capital of San Juan.", "The Insular Cases applied to three territories acquired in the Spanish-American War: Puerto Rico, Guam, and this territory. Emilio Aguinaldo fought U.S. occupation in this territory."], "subcategory": "American History", "category": "History"}, {"leadin": "In one episode, this character writes a self-help book called Wish it. Want it. Do it. For 10 points each:", "answers": ["Brian Griffin", "Family Guy", "time machine [accept descriptive answers indicating a device used for time travel]"], "parts": ["Name this anthropomorphic white dog who was brought back only two episodes after his death. This character drives a Toyota Prius and was replaced by a dog with an Italian-American accent, Vinny, after his death.", "Brian Griffin is the pet of the Griffin family on this animated sitcom, whose other members include Chris, Lois, Meg, and Peter.", "In the episode \u201cYug Ylimaf,\u201d Brian tries to impress his dates by showing them one of these devices built by Stewie Griffin. In another episode, Stewie uses one of these devices to help Chris, his brother, pass a history test."], "subcategory": "Trash", "category": "Trash"}]}